<?xml version="1.0" encoding="UTF-8"?>

<!-- generated on 2023-11-27 21:59:40 by Eclipse SUMO GUI Version 1.19.0
<configuration xmlns:xsi="http://www.w3.org/2001/XMLSchema-instance" xsi:noNamespaceSchemaLocation="http://sumo.dlr.de/xsd/sumoConfiguration.xsd">

    <input>
        <net-file value="C:\Users\kpanc\Desktop\Project 298\Smart Traffic Signal\Sjdt.net.xml"/>
        <route-files value="C:\Users\kpanc\Desktop\Project 298\Smart Traffic Signal\Sjdt.rou.xml"/>
    </input>

    <output>
        <tripinfo-output value="C:\Users\kpanc\Desktop\Project 298\Smart Traffic Signal\Simulation After Training\output files\tripinfo.xml"/>
    </output>

    <time>
        <begin value="0"/>
        <end value="500"/>
    </time>

    <report>
        <verbose value="true"/>
        <no-step-log value="true"/>
    </report>

    <traci_server>
        <remote-port value="55678"/>
    </traci_server>

</configuration>
-->

<tripinfos xmlns:xsi="http://www.w3.org/2001/XMLSchema-instance" xsi:noNamespaceSchemaLocation="http://sumo.dlr.de/xsd/tripinfo_file.xsd">
    <tripinfo id="13" depart="13.00" departLane="-350264233#2_0" departPos="5.10" departSpeed="0.00" departDelay="0.00" arrival="23.00" arrivalLane="-350264233#2_0" arrivalPos="103.45" arrivalSpeed="20.15" duration="10.00" routeLength="98.35" waitingTime="0.00" waitingCount="0" stopTime="0.00" timeLoss="5.61" rerouteNo="0" devices="tripinfo_13" vType="DEFAULT_VEHTYPE" speedFactor="1.12" vaporized=""/>
    <tripinfo id="2" depart="2.00" departLane="498017736#0_0" departPos="5.10" departSpeed="0.00" departDelay="0.00" arrival="30.00" arrivalLane="416909227#0_0" arrivalPos="32.49" arrivalSpeed="11.12" duration="28.00" routeLength="404.87" waitingTime="0.00" waitingCount="0" stopTime="0.00" timeLoss="12.98" rerouteNo="0" devices="tripinfo_2" vType="DEFAULT_VEHTYPE" speedFactor="1.01" vaporized=""/>
    <tripinfo id="30" depart="30.00" departLane="962623420#0_0" departPos="5.10" departSpeed="0.00" departDelay="0.00" arrival="84.00" arrivalLane="416900963#0_0" arrivalPos="31.94" arrivalSpeed="11.93" duration="54.00" routeLength="637.72" waitingTime="0.00" waitingCount="0" stopTime="0.00" timeLoss="13.47" rerouteNo="0" devices="tripinfo_30" vType="DEFAULT_VEHTYPE" speedFactor="0.93" vaporized=""/>
    <tripinfo id="1" depart="1.00" departLane="-691635835#5_0" departPos="5.10" departSpeed="0.00" departDelay="0.00" arrival="85.00" arrivalLane="-641747905#1_0" arrivalPos="219.86" arrivalSpeed="20.02" duration="84.00" routeLength="1282.32" waitingTime="0.00" waitingCount="0" stopTime="0.00" timeLoss="13.47" rerouteNo="0" devices="tripinfo_1" vType="DEFAULT_VEHTYPE" speedFactor="0.94" vaporized=""/>
    <tripinfo id="5" depart="5.00" departLane="-573805606#1_0" departPos="5.10" departSpeed="0.00" departDelay="0.00" arrival="91.00" arrivalLane="1005171904#0_0" arrivalPos="173.09" arrivalSpeed="9.93" duration="86.00" routeLength="883.78" waitingTime="0.00" waitingCount="0" stopTime="0.00" timeLoss="13.21" rerouteNo="0" devices="tripinfo_5" vType="DEFAULT_VEHTYPE" speedFactor="0.83" vaporized=""/>
    <tripinfo id="3" depart="3.00" departLane="8929271#0_0" departPos="5.10" departSpeed="0.00" departDelay="0.00" arrival="97.00" arrivalLane="-28551319_0" arrivalPos="106.09" arrivalSpeed="11.70" duration="94.00" routeLength="1105.09" waitingTime="0.00" waitingCount="0" stopTime="0.00" timeLoss="14.50" rerouteNo="0" devices="tripinfo_3" vType="DEFAULT_VEHTYPE" speedFactor="1.08" vaporized=""/>
    <tripinfo id="10" depart="10.00" departLane="641747906#1_0" departPos="5.10" departSpeed="0.00" departDelay="0.00" arrival="99.00" arrivalLane="417009170#0_0" arrivalPos="38.50" arrivalSpeed="14.48" duration="89.00" routeLength="1045.88" waitingTime="0.00" waitingCount="0" stopTime="0.00" timeLoss="15.05" rerouteNo="0" devices="tripinfo_10" vType="DEFAULT_VEHTYPE" speedFactor="1.09" vaporized=""/>
    <tripinfo id="38" depart="38.00" departLane="8942147#2_0" departPos="5.10" departSpeed="0.00" departDelay="0.00" arrival="106.00" arrivalLane="1005094807#1_0" arrivalPos="23.60" arrivalSpeed="12.32" duration="68.00" routeLength="950.50" waitingTime="0.00" waitingCount="0" stopTime="0.00" timeLoss="15.74" rerouteNo="0" devices="tripinfo_38" vType="DEFAULT_VEHTYPE" speedFactor="1.18" vaporized=""/>
    <tripinfo id="21" depart="21.00" departLane="-641747905#0_0" departPos="5.10" departSpeed="0.00" departDelay="0.00" arrival="113.00" arrivalLane="-78135420_0" arrivalPos="90.87" arrivalSpeed="18.02" duration="92.00" routeLength="1020.98" waitingTime="1.00" waitingCount="1" stopTime="0.00" timeLoss="29.97" rerouteNo="0" devices="tripinfo_21" vType="DEFAULT_VEHTYPE" speedFactor="1.01" vaporized=""/>
    <tripinfo id="17" depart="17.00" departLane="-8955381#3_0" departPos="5.10" departSpeed="0.00" departDelay="0.00" arrival="123.00" arrivalLane="25774688#0_0" arrivalPos="119.27" arrivalSpeed="7.92" duration="106.00" routeLength="1100.64" waitingTime="0.00" waitingCount="0" stopTime="0.00" timeLoss="22.38" rerouteNo="0" devices="tripinfo_17" vType="DEFAULT_VEHTYPE" speedFactor="0.94" vaporized=""/>
    <tripinfo id="79" depart="80.00" departLane="-641747905#1_0" departPos="5.10" departSpeed="0.00" departDelay="1.00" arrival="126.00" arrivalLane="-641747905#0_0" arrivalPos="220.97" arrivalSpeed="5.65" duration="46.00" routeLength="450.18" waitingTime="13.00" waitingCount="1" stopTime="0.00" timeLoss="25.76" rerouteNo="0" devices="tripinfo_79" vType="DEFAULT_VEHTYPE" speedFactor="1.01" vaporized=""/>
    <tripinfo id="68" depart="68.00" departLane="-28453211#16_0" departPos="5.10" departSpeed="0.00" departDelay="0.00" arrival="135.00" arrivalLane="573536922_0" arrivalPos="68.84" arrivalSpeed="9.21" duration="67.00" routeLength="561.12" waitingTime="0.00" waitingCount="0" stopTime="0.00" timeLoss="9.29" rerouteNo="0" devices="tripinfo_68" vType="DEFAULT_VEHTYPE" speedFactor="0.91" vaporized=""/>
    <tripinfo id="73" depart="73.00" departLane="1067034962_0" departPos="0.20" departSpeed="0.00" departDelay="0.00" arrival="136.00" arrivalLane="417915467#0_0" arrivalPos="36.54" arrivalSpeed="9.52" duration="63.00" routeLength="357.95" waitingTime="11.00" waitingCount="1" stopTime="0.00" timeLoss="20.54" rerouteNo="0" devices="tripinfo_73" vType="DEFAULT_VEHTYPE" speedFactor="0.94" vaporized=""/>
    <tripinfo id="49" depart="49.00" departLane="8961118#4_0" departPos="5.10" departSpeed="0.00" departDelay="0.00" arrival="143.00" arrivalLane="78135420_0" arrivalPos="90.87" arrivalSpeed="17.50" duration="94.00" routeLength="906.35" waitingTime="0.00" waitingCount="0" stopTime="0.00" timeLoss="20.74" rerouteNo="0" devices="tripinfo_49" vType="DEFAULT_VEHTYPE" speedFactor="0.88" vaporized=""/>
    <tripinfo id="19" depart="19.00" departLane="78135420_0" departPos="5.10" departSpeed="0.00" departDelay="0.00" arrival="144.00" arrivalLane="28453211#14_0" arrivalPos="106.62" arrivalSpeed="9.65" duration="125.00" routeLength="1155.65" waitingTime="21.00" waitingCount="1" stopTime="0.00" timeLoss="57.42" rerouteNo="0" devices="tripinfo_19" vType="DEFAULT_VEHTYPE" speedFactor="1.16" vaporized=""/>
    <tripinfo id="86" depart="91.00" departLane="1005094819#1_0" departPos="5.10" departSpeed="0.00" departDelay="5.00" arrival="148.00" arrivalLane="573805606#1_0" arrivalPos="105.57" arrivalSpeed="12.34" duration="57.00" routeLength="729.72" waitingTime="0.00" waitingCount="0" stopTime="0.00" timeLoss="12.73" rerouteNo="0" devices="tripinfo_86" vType="DEFAULT_VEHTYPE" speedFactor="0.98" vaporized=""/>
    <tripinfo id="67" depart="67.00" departLane="-28551319_0" departPos="5.10" departSpeed="0.00" departDelay="0.00" arrival="154.00" arrivalLane="1005094823#0_0" arrivalPos="17.96" arrivalSpeed="9.65" duration="87.00" routeLength="863.25" waitingTime="0.00" waitingCount="0" stopTime="0.00" timeLoss="12.92" rerouteNo="0" devices="tripinfo_67" vType="DEFAULT_VEHTYPE" speedFactor="0.91" vaporized=""/>
    <tripinfo id="48" depart="48.00" departLane="986612623_0" departPos="5.10" departSpeed="0.00" departDelay="0.00" arrival="159.00" arrivalLane="1067034948_0" arrivalPos="11.61" arrivalSpeed="9.67" duration="111.00" routeLength="1100.92" waitingTime="0.00" waitingCount="0" stopTime="0.00" timeLoss="14.49" rerouteNo="0" devices="tripinfo_48" vType="DEFAULT_VEHTYPE" speedFactor="0.90" vaporized=""/>
    <tripinfo id="47" depart="47.00" departLane="-28453211#14_0" departPos="5.10" departSpeed="0.00" departDelay="0.00" arrival="172.00" arrivalLane="-8961118#11_0" arrivalPos="105.44" arrivalSpeed="12.81" duration="125.00" routeLength="910.79" waitingTime="37.00" waitingCount="3" stopTime="0.00" timeLoss="64.65" rerouteNo="0" devices="tripinfo_47" vType="DEFAULT_VEHTYPE" speedFactor="1.00" vaporized=""/>
    <tripinfo id="82" depart="82.00" departLane="78135419_0" departPos="5.10" departSpeed="0.00" departDelay="0.00" arrival="174.00" arrivalLane="-28453211#15_0" arrivalPos="105.98" arrivalSpeed="8.58" duration="92.00" routeLength="920.52" waitingTime="0.00" waitingCount="0" stopTime="0.00" timeLoss="16.38" rerouteNo="0" devices="tripinfo_82" vType="DEFAULT_VEHTYPE" speedFactor="1.00" vaporized=""/>
    <tripinfo id="56" depart="56.00" departLane="1005094868_0" departPos="3.49" departSpeed="0.00" departDelay="0.00" arrival="175.00" arrivalLane="-417052412#1_0" arrivalPos="19.27" arrivalSpeed="15.21" duration="119.00" routeLength="1217.18" waitingTime="23.00" waitingCount="1" stopTime="0.00" timeLoss="50.16" rerouteNo="0" devices="tripinfo_56" vType="DEFAULT_VEHTYPE" speedFactor="1.00" vaporized=""/>
    <tripinfo id="12" depart="12.00" departLane="8955381#1_0" departPos="5.10" departSpeed="0.00" departDelay="0.00" arrival="176.00" arrivalLane="-8942147#3_0" arrivalPos="220.31" arrivalSpeed="13.70" duration="164.00" routeLength="1765.92" waitingTime="21.00" waitingCount="2" stopTime="0.00" timeLoss="52.08" rerouteNo="0" devices="tripinfo_12" vType="DEFAULT_VEHTYPE" speedFactor="1.05" vaporized=""/>
    <tripinfo id="70" depart="70.00" departLane="1005094820#0_0" departPos="5.10" departSpeed="0.00" departDelay="0.00" arrival="176.00" arrivalLane="25774687#2_0" arrivalPos="606.25" arrivalSpeed="13.38" duration="106.00" routeLength="1153.01" waitingTime="0.00" waitingCount="0" stopTime="0.00" timeLoss="14.61" rerouteNo="0" devices="tripinfo_70" vType="DEFAULT_VEHTYPE" speedFactor="1.02" vaporized=""/>
    <tripinfo id="74" depart="74.00" departLane="-573536922_0" departPos="5.10" departSpeed="0.00" departDelay="0.00" arrival="176.00" arrivalLane="-8929271#2_0" arrivalPos="220.82" arrivalSpeed="12.62" duration="102.00" routeLength="1128.72" waitingTime="2.00" waitingCount="1" stopTime="0.00" timeLoss="21.03" rerouteNo="0" devices="tripinfo_74" vType="DEFAULT_VEHTYPE" speedFactor="1.06" vaporized=""/>
    <tripinfo id="131" depart="131.00" departLane="-8954936#3_0" departPos="5.10" departSpeed="0.00" departDelay="0.00" arrival="176.00" arrivalLane="-416901153#1_0" arrivalPos="58.76" arrivalSpeed="11.05" duration="45.00" routeLength="351.71" waitingTime="8.00" waitingCount="1" stopTime="0.00" timeLoss="16.32" rerouteNo="0" devices="tripinfo_131" vType="DEFAULT_VEHTYPE" speedFactor="1.01" vaporized=""/>
    <tripinfo id="40" depart="40.00" departLane="28393470_0" departPos="5.10" departSpeed="0.00" departDelay="0.00" arrival="180.00" arrivalLane="-691635835#0_0" arrivalPos="218.58" arrivalSpeed="12.29" duration="140.00" routeLength="1246.63" waitingTime="4.00" waitingCount="2" stopTime="0.00" timeLoss="31.76" rerouteNo="0" devices="tripinfo_40" vType="DEFAULT_VEHTYPE" speedFactor="0.90" vaporized=""/>
    <tripinfo id="140" depart="140.00" departLane="417052412#0_0" departPos="5.10" departSpeed="0.00" departDelay="0.00" arrival="180.00" arrivalLane="-573805605#3_0" arrivalPos="227.73" arrivalSpeed="21.43" duration="40.00" routeLength="509.40" waitingTime="0.00" waitingCount="0" stopTime="0.00" timeLoss="14.97" rerouteNo="0" devices="tripinfo_140" vType="DEFAULT_VEHTYPE" speedFactor="1.00" vaporized=""/>
    <tripinfo id="102" depart="102.00" departLane="1005094822#1_0" departPos="5.10" departSpeed="0.00" departDelay="0.00" arrival="184.00" arrivalLane="-573805606#2_0" arrivalPos="106.38" arrivalSpeed="12.58" duration="82.00" routeLength="841.93" waitingTime="0.00" waitingCount="0" stopTime="0.00" timeLoss="15.08" rerouteNo="0" devices="tripinfo_102" vType="DEFAULT_VEHTYPE" speedFactor="0.96" vaporized=""/>
    <tripinfo id="104" depart="105.00" departLane="-8955381#3_0" departPos="5.10" departSpeed="0.00" departDelay="1.00" arrival="186.00" arrivalLane="8966480#0_0" arrivalPos="280.70" arrivalSpeed="12.36" duration="81.00" routeLength="716.73" waitingTime="12.00" waitingCount="1" stopTime="0.00" timeLoss="30.38" rerouteNo="0" devices="tripinfo_104" vType="DEFAULT_VEHTYPE" speedFactor="0.95" vaporized=""/>
    <tripinfo id="89" depart="89.00" departLane="1005086856#0_0" departPos="5.10" departSpeed="0.00" departDelay="0.00" arrival="192.00" arrivalLane="1005094819#0_0" arrivalPos="20.07" arrivalSpeed="10.40" duration="103.00" routeLength="1056.40" waitingTime="0.00" waitingCount="0" stopTime="0.00" timeLoss="20.80" rerouteNo="0" devices="tripinfo_89" vType="DEFAULT_VEHTYPE" speedFactor="1.01" vaporized=""/>
    <tripinfo id="0" depart="0.00" departLane="363855632#0_0" departPos="5.10" departSpeed="0.00" departDelay="0.00" arrival="194.00" arrivalLane="-1063693674#2_0" arrivalPos="222.16" arrivalSpeed="23.38" duration="194.00" routeLength="1656.11" waitingTime="62.00" waitingCount="2" stopTime="0.00" timeLoss="95.33" rerouteNo="0" devices="tripinfo_0" vType="DEFAULT_VEHTYPE" speedFactor="1.06" vaporized=""/>
    <tripinfo id="42" depart="42.00" departLane="-8961121#0_0" departPos="5.10" departSpeed="0.00" departDelay="0.00" arrival="195.00" arrivalLane="-641747905#0_0" arrivalPos="220.97" arrivalSpeed="20.94" duration="153.00" routeLength="864.09" waitingTime="66.00" waitingCount="2" stopTime="0.00" timeLoss="93.44" rerouteNo="0" devices="tripinfo_42" vType="DEFAULT_VEHTYPE" speedFactor="0.96" vaporized=""/>
    <tripinfo id="139" depart="139.00" departLane="-691635835#4_0" departPos="5.10" departSpeed="0.00" departDelay="0.00" arrival="196.00" arrivalLane="350264233#2_0" arrivalPos="103.38" arrivalSpeed="20.94" duration="57.00" routeLength="687.87" waitingTime="0.00" waitingCount="0" stopTime="0.00" timeLoss="14.20" rerouteNo="0" devices="tripinfo_139" vType="DEFAULT_VEHTYPE" speedFactor="1.02" vaporized=""/>
    <tripinfo id="85" depart="85.00" departLane="8948311#0_0" departPos="5.10" departSpeed="0.00" departDelay="0.00" arrival="197.00" arrivalLane="28453211#10_0" arrivalPos="115.32" arrivalSpeed="9.51" duration="112.00" routeLength="1469.39" waitingTime="0.00" waitingCount="0" stopTime="0.00" timeLoss="18.84" rerouteNo="0" devices="tripinfo_85" vType="DEFAULT_VEHTYPE" speedFactor="1.15" vaporized=""/>
    <tripinfo id="105" depart="105.00" departLane="-691635835#0_0" departPos="5.10" departSpeed="0.00" departDelay="0.00" arrival="197.00" arrivalLane="573805606#0_0" arrivalPos="106.68" arrivalSpeed="11.70" duration="92.00" routeLength="450.46" waitingTime="37.00" waitingCount="2" stopTime="0.00" timeLoss="52.38" rerouteNo="0" devices="tripinfo_105" vType="DEFAULT_VEHTYPE" speedFactor="0.89" vaporized=""/>
    <tripinfo id="113" depart="113.00" departLane="1005094868_0" departPos="3.49" departSpeed="0.00" departDelay="0.00" arrival="198.00" arrivalLane="761994764_0" arrivalPos="106.42" arrivalSpeed="5.79" duration="85.00" routeLength="229.96" waitingTime="41.00" waitingCount="4" stopTime="0.00" timeLoss="60.24" rerouteNo="0" devices="tripinfo_113" vType="DEFAULT_VEHTYPE" speedFactor="0.87" vaporized=""/>
    <tripinfo id="117" depart="117.00" departLane="-641747906#1_0" departPos="5.10" departSpeed="0.00" departDelay="0.00" arrival="199.00" arrivalLane="-363855631#3_0" arrivalPos="107.53" arrivalSpeed="9.84" duration="82.00" routeLength="928.05" waitingTime="0.00" waitingCount="0" stopTime="0.00" timeLoss="17.59" rerouteNo="0" devices="tripinfo_117" vType="DEFAULT_VEHTYPE" speedFactor="0.92" vaporized=""/>
    <tripinfo id="8" depart="8.00" departLane="-573805606#2_0" departPos="5.10" departSpeed="0.00" departDelay="0.00" arrival="200.00" arrivalLane="28453211#4_0" arrivalPos="121.80" arrivalSpeed="8.33" duration="192.00" routeLength="1216.76" waitingTime="56.00" waitingCount="1" stopTime="0.00" timeLoss="79.98" rerouteNo="0" devices="tripinfo_8" vType="DEFAULT_VEHTYPE" speedFactor="0.94" vaporized=""/>
    <tripinfo id="110" depart="110.00" departLane="8961118#12_0" departPos="5.10" departSpeed="0.00" departDelay="0.00" arrival="201.00" arrivalLane="28453211#15_0" arrivalPos="106.10" arrivalSpeed="8.56" duration="91.00" routeLength="923.52" waitingTime="2.00" waitingCount="1" stopTime="0.00" timeLoss="22.15" rerouteNo="0" devices="tripinfo_110" vType="DEFAULT_VEHTYPE" speedFactor="1.06" vaporized=""/>
    <tripinfo id="112" depart="112.00" departLane="-28453211#12_0" departPos="5.10" departSpeed="0.00" departDelay="0.00" arrival="201.00" arrivalLane="28453211#2_0" arrivalPos="125.08" arrivalSpeed="8.18" duration="89.00" routeLength="646.79" waitingTime="0.00" waitingCount="0" stopTime="0.00" timeLoss="9.34" rerouteNo="0" devices="tripinfo_112" vType="DEFAULT_VEHTYPE" speedFactor="0.93" vaporized=""/>
    <tripinfo id="53" depart="53.00" departLane="-363855631#2_0" departPos="5.10" departSpeed="0.00" departDelay="0.00" arrival="204.00" arrivalLane="1005086896#0_0" arrivalPos="225.41" arrivalSpeed="12.49" duration="151.00" routeLength="1416.86" waitingTime="21.00" waitingCount="2" stopTime="0.00" timeLoss="42.00" rerouteNo="0" devices="tripinfo_53" vType="DEFAULT_VEHTYPE" speedFactor="1.02" vaporized=""/>
    <tripinfo id="81" depart="88.00" departLane="-641747905#0_0" departPos="5.10" departSpeed="0.00" departDelay="7.00" arrival="205.00" arrivalLane="8942147#3_0" arrivalPos="220.31" arrivalSpeed="13.37" duration="117.00" routeLength="1026.85" waitingTime="34.00" waitingCount="2" stopTime="0.00" timeLoss="60.82" rerouteNo="0" devices="tripinfo_81" vType="DEFAULT_VEHTYPE" speedFactor="1.03" vaporized=""/>
    <tripinfo id="153" depart="153.00" departLane="-8929271#2_0" departPos="5.10" departSpeed="0.00" departDelay="0.00" arrival="205.00" arrivalLane="8942147#1_0" arrivalPos="220.61" arrivalSpeed="12.85" duration="52.00" routeLength="571.68" waitingTime="0.00" waitingCount="0" stopTime="0.00" timeLoss="7.54" rerouteNo="0" devices="tripinfo_153" vType="DEFAULT_VEHTYPE" speedFactor="1.00" vaporized=""/>
    <tripinfo id="123" depart="123.00" departLane="-641747906#2_0" departPos="5.10" departSpeed="0.00" departDelay="0.00" arrival="206.00" arrivalLane="-8961121#0_0" arrivalPos="59.72" arrivalSpeed="18.04" duration="83.00" routeLength="842.57" waitingTime="0.00" waitingCount="0" stopTime="0.00" timeLoss="26.68" rerouteNo="0" devices="tripinfo_123" vType="DEFAULT_VEHTYPE" speedFactor="1.10" vaporized=""/>
    <tripinfo id="160" depart="160.00" departLane="825794149_0" departPos="5.10" departSpeed="0.00" departDelay="0.00" arrival="206.00" arrivalLane="8961121#1_0" arrivalPos="3.84" arrivalSpeed="7.46" duration="46.00" routeLength="410.61" waitingTime="3.00" waitingCount="1" stopTime="0.00" timeLoss="12.87" rerouteNo="0" devices="tripinfo_160" vType="DEFAULT_VEHTYPE" speedFactor="0.91" vaporized=""/>
    <tripinfo id="142" depart="142.00" departLane="1005094823#0_0" departPos="5.10" departSpeed="0.00" departDelay="0.00" arrival="208.00" arrivalLane="8942147#3_0" arrivalPos="220.31" arrivalSpeed="14.62" duration="66.00" routeLength="699.23" waitingTime="2.00" waitingCount="1" stopTime="0.00" timeLoss="18.76" rerouteNo="0" devices="tripinfo_142" vType="DEFAULT_VEHTYPE" speedFactor="1.11" vaporized=""/>
    <tripinfo id="9" depart="9.00" departLane="641747906#2_0" departPos="5.10" departSpeed="0.00" departDelay="0.00" arrival="210.00" arrivalLane="-1005086889#1_0" arrivalPos="21.25" arrivalSpeed="9.05" duration="201.00" routeLength="1768.15" waitingTime="28.00" waitingCount="2" stopTime="0.00" timeLoss="61.47" rerouteNo="0" devices="tripinfo_9" vType="DEFAULT_VEHTYPE" speedFactor="0.86" vaporized=""/>
    <tripinfo id="155" depart="155.00" departLane="8929271#4_0" departPos="5.10" departSpeed="0.00" departDelay="0.00" arrival="211.00" arrivalLane="-573805606#1_0" arrivalPos="105.56" arrivalSpeed="11.95" duration="56.00" routeLength="561.02" waitingTime="0.00" waitingCount="0" stopTime="0.00" timeLoss="10.45" rerouteNo="0" devices="tripinfo_155" vType="DEFAULT_VEHTYPE" speedFactor="0.93" vaporized=""/>
    <tripinfo id="115" depart="115.00" departLane="-28453211#9_0" departPos="5.10" departSpeed="0.00" departDelay="0.00" arrival="212.00" arrivalLane="-505572728#1_0" arrivalPos="175.57" arrivalSpeed="11.12" duration="97.00" routeLength="933.85" waitingTime="0.00" waitingCount="0" stopTime="0.00" timeLoss="13.58" rerouteNo="0" devices="tripinfo_115" vType="DEFAULT_VEHTYPE" speedFactor="1.01" vaporized=""/>
    <tripinfo id="78" depart="78.00" departLane="-8942147#6_0" departPos="5.10" departSpeed="0.00" departDelay="0.00" arrival="214.00" arrivalLane="28453211#4_0" arrivalPos="121.80" arrivalSpeed="7.95" duration="136.00" routeLength="1225.45" waitingTime="7.00" waitingCount="1" stopTime="0.00" timeLoss="27.59" rerouteNo="0" devices="tripinfo_78" vType="DEFAULT_VEHTYPE" speedFactor="0.98" vaporized=""/>
    <tripinfo id="7" depart="7.00" departLane="416901013#0_0" departPos="5.10" departSpeed="0.00" departDelay="0.00" arrival="215.00" arrivalLane="25774687#0_0" arrivalPos="219.93" arrivalSpeed="11.30" duration="208.00" routeLength="1658.68" waitingTime="36.00" waitingCount="3" stopTime="0.00" timeLoss="73.57" rerouteNo="0" devices="tripinfo_7" vType="DEFAULT_VEHTYPE" speedFactor="0.89" vaporized=""/>
    <tripinfo id="138" depart="138.00" departLane="-358579845#0_0" departPos="5.10" departSpeed="0.00" departDelay="0.00" arrival="216.00" arrivalLane="25774688#0_0" arrivalPos="119.27" arrivalSpeed="11.86" duration="78.00" routeLength="950.97" waitingTime="0.00" waitingCount="0" stopTime="0.00" timeLoss="25.42" rerouteNo="0" devices="tripinfo_138" vType="DEFAULT_VEHTYPE" speedFactor="1.12" vaporized=""/>
    <tripinfo id="157" depart="157.00" departLane="573805606#2_0" departPos="5.10" departSpeed="0.00" departDelay="0.00" arrival="216.00" arrivalLane="8929271#3_0" arrivalPos="220.55" arrivalSpeed="15.26" duration="59.00" routeLength="667.13" waitingTime="0.00" waitingCount="0" stopTime="0.00" timeLoss="13.99" rerouteNo="0" devices="tripinfo_157" vType="DEFAULT_VEHTYPE" speedFactor="1.12" vaporized=""/>
    <tripinfo id="26" depart="26.00" departLane="-691635835#0_0" departPos="5.10" departSpeed="0.00" departDelay="0.00" arrival="219.00" arrivalLane="8948469#0_0" arrivalPos="219.95" arrivalSpeed="11.61" duration="193.00" routeLength="1472.59" waitingTime="8.00" waitingCount="1" stopTime="0.00" timeLoss="32.00" rerouteNo="0" devices="tripinfo_26" vType="DEFAULT_VEHTYPE" speedFactor="0.87" vaporized=""/>
    <tripinfo id="91" depart="91.00" departLane="8966478#1_0" departPos="5.10" departSpeed="0.00" departDelay="0.00" arrival="219.00" arrivalLane="-350264233#2_0" arrivalPos="103.45" arrivalSpeed="18.65" duration="128.00" routeLength="1335.66" waitingTime="5.00" waitingCount="1" stopTime="0.00" timeLoss="40.95" rerouteNo="0" devices="tripinfo_91" vType="DEFAULT_VEHTYPE" speedFactor="1.02" vaporized=""/>
    <tripinfo id="92" depart="92.00" departLane="-8961121#1_0" departPos="3.84" departSpeed="0.00" departDelay="0.00" arrival="222.00" arrivalLane="-8942147#4_0" arrivalPos="217.54" arrivalSpeed="12.38" duration="130.00" routeLength="1254.56" waitingTime="2.00" waitingCount="1" stopTime="0.00" timeLoss="22.97" rerouteNo="0" devices="tripinfo_92" vType="DEFAULT_VEHTYPE" speedFactor="0.89" vaporized=""/>
    <tripinfo id="147" depart="147.00" departLane="516428323#0_0" departPos="5.10" departSpeed="0.00" departDelay="0.00" arrival="224.00" arrivalLane="25774688#0_0" arrivalPos="119.27" arrivalSpeed="15.83" duration="77.00" routeLength="988.06" waitingTime="0.00" waitingCount="0" stopTime="0.00" timeLoss="15.73" rerouteNo="0" devices="tripinfo_147" vType="DEFAULT_VEHTYPE" speedFactor="1.14" vaporized=""/>
    <tripinfo id="175" depart="175.00" departLane="8966478#0_0" departPos="5.10" departSpeed="0.00" departDelay="0.00" arrival="227.00" arrivalLane="1078136770#3_0" arrivalPos="55.84" arrivalSpeed="15.40" duration="52.00" routeLength="449.34" waitingTime="7.00" waitingCount="1" stopTime="0.00" timeLoss="18.48" rerouteNo="0" devices="tripinfo_175" vType="DEFAULT_VEHTYPE" speedFactor="1.14" vaporized=""/>
    <tripinfo id="151" depart="152.00" departLane="691635835#0_0" departPos="5.10" departSpeed="0.00" departDelay="1.00" arrival="229.00" arrivalLane="28453211#16_0" arrivalPos="111.32" arrivalSpeed="8.75" duration="77.00" routeLength="701.05" waitingTime="0.00" waitingCount="0" stopTime="0.00" timeLoss="8.60" rerouteNo="0" devices="tripinfo_151" vType="DEFAULT_VEHTYPE" speedFactor="1.04" vaporized=""/>
    <tripinfo id="72" depart="72.00" departLane="1005086856#0_0" departPos="5.10" departSpeed="0.00" departDelay="0.00" arrival="231.00" arrivalLane="-573805606#1_0" arrivalPos="105.56" arrivalSpeed="12.87" duration="159.00" routeLength="948.80" waitingTime="45.00" waitingCount="5" stopTime="0.00" timeLoss="81.79" rerouteNo="0" devices="tripinfo_72" vType="DEFAULT_VEHTYPE" speedFactor="0.97" vaporized=""/>
    <tripinfo id="100" depart="100.00" departLane="8961118#12_0" departPos="5.10" departSpeed="0.00" departDelay="0.00" arrival="232.00" arrivalLane="8948311#1_0" arrivalPos="219.94" arrivalSpeed="14.79" duration="132.00" routeLength="1029.48" waitingTime="29.00" waitingCount="1" stopTime="0.00" timeLoss="61.99" rerouteNo="0" devices="tripinfo_100" vType="DEFAULT_VEHTYPE" speedFactor="1.10" vaporized=""/>
    <tripinfo id="22" depart="22.00" departLane="-28453211#9_0" departPos="5.10" departSpeed="0.00" departDelay="0.00" arrival="234.00" arrivalLane="-641747906#2_0" arrivalPos="110.71" arrivalSpeed="10.77" duration="212.00" routeLength="1665.56" waitingTime="48.00" waitingCount="1" stopTime="0.00" timeLoss="75.70" rerouteNo="0" devices="tripinfo_22" vType="DEFAULT_VEHTYPE" speedFactor="0.97" vaporized=""/>
    <tripinfo id="45" depart="47.00" departLane="-358579845#2_0" departPos="5.10" departSpeed="0.00" departDelay="2.00" arrival="234.00" arrivalLane="363855630#0_1" arrivalPos="227.48" arrivalSpeed="12.89" duration="187.00" routeLength="724.52" waitingTime="107.00" waitingCount="3" stopTime="0.00" timeLoss="144.31" rerouteNo="0" devices="tripinfo_45" vType="DEFAULT_VEHTYPE" speedFactor="1.04" vaporized=""/>
    <tripinfo id="97" depart="97.00" departLane="1005094794#0_0" departPos="5.10" departSpeed="0.00" departDelay="0.00" arrival="237.00" arrivalLane="78135420_0" arrivalPos="90.87" arrivalSpeed="21.18" duration="140.00" routeLength="1648.75" waitingTime="0.00" waitingCount="0" stopTime="0.00" timeLoss="25.67" rerouteNo="0" devices="tripinfo_97" vType="DEFAULT_VEHTYPE" speedFactor="1.01" vaporized=""/>
    <tripinfo id="148" depart="148.00" departLane="1005086875#0_0" departPos="5.10" departSpeed="0.00" departDelay="0.00" arrival="238.00" arrivalLane="-1005094805_0" arrivalPos="67.44" arrivalSpeed="9.07" duration="90.00" routeLength="811.74" waitingTime="0.00" waitingCount="0" stopTime="0.00" timeLoss="13.42" rerouteNo="0" devices="tripinfo_148" vType="DEFAULT_VEHTYPE" speedFactor="0.89" vaporized=""/>
    <tripinfo id="34" depart="34.00" departLane="-8929271#4_0" departPos="5.10" departSpeed="0.00" departDelay="0.00" arrival="239.00" arrivalLane="-691635835#4_0" arrivalPos="228.56" arrivalSpeed="15.11" duration="205.00" routeLength="1514.07" waitingTime="100.00" waitingCount="1" stopTime="0.00" timeLoss="127.67" rerouteNo="0" devices="tripinfo_34" vType="DEFAULT_VEHTYPE" speedFactor="1.17" vaporized=""/>
    <tripinfo id="141" depart="141.00" departLane="363855631#3_0" departPos="5.10" departSpeed="0.00" departDelay="0.00" arrival="239.00" arrivalLane="-691635835#1_0" arrivalPos="217.54" arrivalSpeed="13.04" duration="98.00" routeLength="1376.53" waitingTime="0.00" waitingCount="0" stopTime="0.00" timeLoss="14.21" rerouteNo="0" devices="tripinfo_141" vType="DEFAULT_VEHTYPE" speedFactor="0.95" vaporized=""/>
    <tripinfo id="126" depart="126.00" departLane="-28453211#3_0" departPos="5.10" departSpeed="0.00" departDelay="0.00" arrival="240.00" arrivalLane="1005094807#1_0" arrivalPos="23.60" arrivalSpeed="10.35" duration="114.00" routeLength="923.71" waitingTime="20.00" waitingCount="1" stopTime="0.00" timeLoss="35.31" rerouteNo="0" devices="tripinfo_126" vType="DEFAULT_VEHTYPE" speedFactor="1.06" vaporized=""/>
    <tripinfo id="106" depart="106.00" departLane="1005094806#0_0" departPos="5.10" departSpeed="0.00" departDelay="0.00" arrival="241.00" arrivalLane="1005086875#0_1" arrivalPos="223.72" arrivalSpeed="13.64" duration="135.00" routeLength="978.25" waitingTime="44.00" waitingCount="1" stopTime="0.00" timeLoss="61.39" rerouteNo="0" devices="tripinfo_106" vType="DEFAULT_VEHTYPE" speedFactor="1.07" vaporized=""/>
    <tripinfo id="154" depart="158.00" departLane="641747905#0_0" departPos="5.10" departSpeed="0.00" departDelay="4.00" arrival="242.00" arrivalLane="78135420_0" arrivalPos="90.87" arrivalSpeed="19.65" duration="84.00" routeLength="890.88" waitingTime="1.00" waitingCount="1" stopTime="0.00" timeLoss="30.36" rerouteNo="0" devices="tripinfo_154" vType="DEFAULT_VEHTYPE" speedFactor="1.07" vaporized=""/>
    <tripinfo id="109" depart="109.00" departLane="-416909217#1_0" departPos="5.10" departSpeed="0.00" departDelay="0.00" arrival="243.00" arrivalLane="-839482254#5_0" arrivalPos="123.22" arrivalSpeed="10.47" duration="134.00" routeLength="1277.68" waitingTime="7.00" waitingCount="1" stopTime="0.00" timeLoss="26.63" rerouteNo="0" devices="tripinfo_109" vType="DEFAULT_VEHTYPE" speedFactor="1.03" vaporized=""/>